--------------------------------------------------------------------------
[[34326,1],0]: A high-performance Open MPI point-to-point messaging module
was unable to find any relevant network interfaces:

Module: OpenFabrics (openib)
  Host: plasmon-ms

Another transport will be used instead, although this may result in
lower performance.

NOTE: You can disable this warning by setting the MCA parameter
btl_base_warn_component_unused to 0.
--------------------------------------------------------------------------

*************** JDFTx 1.6.0  ***************

Start date and time: Wed Jun  9 00:45:38 2021
Executable jdftx with command-line: -i cluster152.in
Running on hosts (process indices):  plasmon-ms.mit.edu (0)
Divided in process groups (process indices):  0 (0)
Resource initialization completed at t[s]:      0.00
Run totals: 1 processes, 40 threads, 0 GPUs


Input parsed successfully to the following command list (including defaults):

basis kpoint-dependent
coords-type Cartesian
core-overlap-check vector
coulomb-interaction Isolated
davidson-band-ratio 1.1
dump End ElecDensity BandEigs EigStats Excitations Momenta
dump-name $INPUT.$VAR
elec-cutoff 20
elec-eigen-algo Davidson
elec-ex-corr hyb-gga-b97-k
elec-initial-charge -1.000000
elec-initial-magnetization 0.000000 no
elec-smearing Fermi 0.0001
electronic-minimize  \
	dirUpdateScheme      FletcherReeves \
	linminMethod         DirUpdateRecommended \
	nIterations          100 \
	history              15 \
	knormThreshold       0 \
	energyDiffThreshold  1e-08 \
	nEnergyDiff          2 \
	alphaTstart          1 \
	alphaTmin            1e-10 \
	updateTestStepSize   yes \
	alphaTreduceFactor   0.1 \
	alphaTincreaseFactor 3 \
	nAlphaAdjustMax      3 \
	wolfeEnergy          0.0001 \
	wolfeGradient        0.9 \
	fdTest               no
exchange-regularization None
fluid None
fluid-ex-corr (null) lda-PZ
fluid-gummel-loop 10 1.000000e-05
fluid-minimize  \
	dirUpdateScheme      PolakRibiere \
	linminMethod         DirUpdateRecommended \
	nIterations          100 \
	history              15 \
	knormThreshold       0 \
	energyDiffThreshold  0 \
	nEnergyDiff          2 \
	alphaTstart          1 \
	alphaTmin            1e-10 \
	updateTestStepSize   yes \
	alphaTreduceFactor   0.1 \
	alphaTincreaseFactor 3 \
	nAlphaAdjustMax      3 \
	wolfeEnergy          0.0001 \
	wolfeGradient        0.9 \
	fdTest               no
fluid-solvent H2O 55.338 ScalarEOS \
	epsBulk 78.4 \
	pMol 0.92466 \
	epsInf 1.77 \
	Pvap 1.06736e-10 \
	sigmaBulk 4.62e-05 \
	Rvdw 2.61727 \
	Res 1.42 \
	tauNuc 343133 \
	poleEl 15 7 1
forces-output-coords Positions
ion Si  17.051088600000000   4.511838894015373  14.415996395972480 1
ion Si  11.582437663621892   2.986955595433721  17.366835281426155 1
ion Si  22.000623950734131   4.159306476816313  17.871948968293822 1
ion Si  14.881638761889223   0.049058061833375  10.960043823651137 1
ion Si  20.008304517733837   8.315883947496340  10.743678810780890 1
ion O  18.088204517733836   7.282083947496342  13.118678810780890 1
ion O  13.582537663621892   4.507255595433721  15.345735281426158 1
ion O  19.066923950734129   3.513406476816314  16.733848968293820 1
ion O  16.907838761889220   2.266858061833375  12.098143823651137 1
ion H  13.291027872942955  -0.917794195482995  13.098355941300902 1
ion H  16.387786251535697  -2.055276916669535   9.802235964945398 1
ion H  21.568190867543628   6.182524245433986   9.717639845978137 1
ion H  10.868422731517944   4.750144297368529  19.468875547001971 1
ion H  21.881307240902000   6.179337495006001  19.857512668683807 1
ion H  13.191890964904971   1.162455728250878   8.974515425716994 1
ion H  18.412569078117112   9.369303215888426   8.650556441751430 1
ion H  12.832872923987528   0.698771148347812  18.479421725595088 1
ion H  23.069969914842218   1.802809329534472  19.029811397038401 1
ion H   9.283166141230087   2.162225530690644  15.927948285645403 1
ion H  23.633324009359061   5.053339230120113  15.733673739380063 1
ion H  21.746359703100786  10.304312980780734  11.774474208622163 1
ion-species ./Si.upf
ion-species ./O.upf
ion-species ./H.upf
ion-width 0
ionic-minimize  \
	dirUpdateScheme      L-BFGS \
	linminMethod         DirUpdateRecommended \
	nIterations          0 \
	history              15 \
	knormThreshold       0.0001 \
	energyDiffThreshold  1e-06 \
	nEnergyDiff          2 \
	alphaTstart          1 \
	alphaTmin            1e-10 \
	updateTestStepSize   yes \
	alphaTreduceFactor   0.1 \
	alphaTincreaseFactor 3 \
	nAlphaAdjustMax      3 \
	wolfeEnergy          0.0001 \
	wolfeGradient        0.9 \
	fdTest               no
kpoint   0.000000000000   0.000000000000   0.000000000000  1.00000000000000
kpoint-folding 1 1 1 
latt-move-scale 1 1 1
latt-scale 1 1 1 
lattice  \
	  40.000000000000000    0.000000000000000    0.000000000000000  \
	   0.000000000000000   40.000000000000000    0.000000000000000  \
	   0.000000000000000    0.000000000000000   40.000000000000000 
lattice-minimize  \
	dirUpdateScheme      L-BFGS \
	linminMethod         DirUpdateRecommended \
	nIterations          0 \
	history              15 \
	knormThreshold       0 \
	energyDiffThreshold  1e-06 \
	nEnergyDiff          2 \
	alphaTstart          1 \
	alphaTmin            1e-10 \
	updateTestStepSize   yes \
	alphaTreduceFactor   0.1 \
	alphaTincreaseFactor 3 \
	nAlphaAdjustMax      3 \
	wolfeEnergy          0.0001 \
	wolfeGradient        0.9 \
	fdTest               no
lcao-params -1 1e-06 0.0001
pcm-variant GLSSA13
spintype z-spin
subspace-rotation-factor 1 yes
symmetries automatic
symmetry-threshold 0.0001



---------- Setting up symmetries ----------

Found 48 point-group symmetries of the bravais lattice
Found 1 space-group symmetries with basis
Applied RMS atom displacement 0 bohrs to make symmetries exact.

---------- Initializing the Grid ----------
R = 
[           40            0            0  ]
[            0           40            0  ]
[            0            0           40  ]
unit cell volume = 64000
G =
[    0.15708          0          0  ]
[          0    0.15708          0  ]
[          0          0    0.15708  ]
Minimum fftbox size, Smin = [  164  164  164  ]
Chosen fftbox size, S = [  168  168  168  ]

---------- Exchange Correlation functional ----------
Initialized LibXC exchange-correlation functional 'Boese-Martin for Kinetics'
Will include 0.42 x exact exchange.

---------- Setting up pseudopotentials ----------
Width of ionic core gaussian charges (only for fluid interactions / plotting) set to 0

Reading pseudopotential file './Si.upf':
  'Si' pseudopotential, 'PBE' functional
  Generated using ONCVPSP code by D. R. Hamann
  Author: anonymous  Date: 171031.
  4 valence electrons, 2 orbitals, 6 projectors, 1510 radial grid points, with lMax = 2
  Transforming local potential to a uniform radial grid of dG=0.02 with 1148 points.
  Transforming nonlocal projectors to a uniform radial grid of dG=0.02 with 432 points.
    3S    l: 0   occupation:  2.0   eigenvalue: -0.397365
    3P    l: 1   occupation:  2.0   eigenvalue: -0.149981
  Transforming atomic orbitals to a uniform radial grid of dG=0.02 with 432 points.
  Transforming core density to a uniform radial grid of dG=0.02 with 1148 points.
  Core radius for overlap checks: 1.86 bohrs.

Reading pseudopotential file './O.upf':
  'O' pseudopotential, 'PBE' functional
  Generated using ONCVPSP code by D. R. Hamann
  Author: anonymous  Date: 171031.
  6 valence electrons, 2 orbitals, 5 projectors, 936 radial grid points, with lMax = 2
  Transforming local potential to a uniform radial grid of dG=0.02 with 1148 points.
  Transforming nonlocal projectors to a uniform radial grid of dG=0.02 with 432 points.
    2S    l: 0   occupation:  2.0   eigenvalue: -0.880572
    2P    l: 1   occupation:  4.0   eigenvalue: -0.331869
  Transforming atomic orbitals to a uniform radial grid of dG=0.02 with 432 points.
  Transforming core density to a uniform radial grid of dG=0.02 with 1148 points.
  Core radius for overlap checks: 1.39 bohrs.

Reading pseudopotential file './H.upf':
  'H' pseudopotential, 'PBE' functional
  Generated using ONCVPSP code by D. R. Hamann
  Author: anonymous  Date: 171031.
  1 valence electrons, 1 orbitals, 3 projectors, 1166 radial grid points, with lMax = 1
  Transforming local potential to a uniform radial grid of dG=0.02 with 1148 points.
  Transforming nonlocal projectors to a uniform radial grid of dG=0.02 with 432 points.
    1S    l: 0   occupation:  1.0   eigenvalue: -0.238602
  Transforming atomic orbitals to a uniform radial grid of dG=0.02 with 432 points.
  Core radius for overlap checks: 0.96 bohrs.

Initialized 3 species with 21 total atoms.

Folded 1 k-points by 1x1x1 to 1 k-points.

---------- Setting up k-points, bands, fillings ----------
No reducable k-points. 
Computing the number of bands and number of electrons
Calculating initial fillings.
nElectrons:  55.000000   nBands: 48   nStates: 2

----- Setting up reduced wavefunction bases (one per k-point) -----
average nbasis = 273425.000 , ideal nbasis = 273412.877

----- Initializing Supercell corresponding to k-point mesh -----
Lattice vector linear combinations in supercell:
[   1   0   0  ]
[   0   1   0  ]
[   0   0   1  ]
Supercell lattice vectors:
[  40  0  0  ]
[  0  40  0  ]
[  0  0  40  ]

---------- Setting up coulomb interaction ----------
Constructing Wigner-Seitz cell: 6 faces (6 quadrilaterals, 0 hexagons)
Gaussian width for range separation: 2.10739 bohrs.
FFT grid for long-range part: [ 168 168 168 ].
Planning fourier transform ... Done.
Computing truncated long-range part in real space ... Done.
Adding short-range part in reciprocal space ... Done.

-------- Setting up exchange kernel --------
Using previously initialized isolated coulomb kernel.
Creating Wigner-Seitz truncated kernel on k-point supercell with sample count [  170 170 170 ]
Constructing Wigner-Seitz cell: 6 faces (6 quadrilaterals, 0 hexagons)
Gaussian width for range separation: 2.10739 bohrs.
FFT grid for long-range part: [ 180 180 180 ].
Planning fourier transform ... Done.
Computing truncated long-range part in real space ... Done.
Adding short-range part in reciprocal space ... Done.
Splitting supercell kernel to unit-cell with k-points ... Done.

---------- Setting up exact exchange ----------
Optimizing transforms to minimize k-point pairs ... done (0 steps).
Reduced 1 k-pairs to 1 under symmetries.
Per-iteration cost relative to semi-local calculation ~ 20

---------- Allocating electronic variables ----------
Initializing wave functions:  linear combination of atomic orbitals
Initializing semi-local functional for LCAO:
Initalized PBE GGA exchange.
Initalized PBE GGA correlation.
Si pseudo-atom occupations:   s ( 2 )  p ( 2 )
O pseudo-atom occupations:   s ( 2 )  p ( 4 )
H pseudo-atom occupations:   s ( 1 )
	FillingsUpdate:  mu: -0.488894552  nElectrons: 55.000000  magneticMoment: [ Abs: 0.00348  Tot: -0.00165 ]
LCAOMinimize: Iter:   0  F: -88.6813783542322511  |grad|_K:  6.624e-02  alpha:  1.000e+00
	FillingsUpdate:  mu: -0.242114015  nElectrons: 55.000000  magneticMoment: [ Abs: 0.00855  Tot: +0.00727 ]
LCAOMinimize: Iter:   1  F: -90.1288339929256068  |grad|_K:  2.424e-02  alpha:  3.897e-01  linmin:  9.638e-02  cgtest: -1.100e+00  t[s]:    208.94
	FillingsUpdate:  mu: -0.228910617  nElectrons: 55.000000  magneticMoment: [ Abs: 0.05775  Tot: +0.05682 ]
LCAOMinimize: Iter:   2  F: -90.1957649052056922  |grad|_K:  1.912e-02  alpha:  1.538e-01  linmin:  1.877e-02  cgtest:  5.869e-01  t[s]:    272.34
	FillingsUpdate:  mu: -0.268411712  nElectrons: 55.000000  magneticMoment: [ Abs: 0.02172  Tot: +0.01969 ]
LCAOMinimize: Iter:   3  F: -90.3994001851144446  |grad|_K:  2.022e-02  alpha:  1.953e-01  linmin: -4.144e-02  cgtest:  3.800e-01  t[s]:    336.45
	FillingsUpdate:  mu: -0.336403582  nElectrons: 55.000000  magneticMoment: [ Abs: 0.01413  Tot: +0.01138 ]
LCAOMinimize: Iter:   4  F: -90.5035401839896423  |grad|_K:  9.784e-03  alpha:  1.021e-01  linmin:  2.778e-02  cgtest: -4.251e-01  t[s]:    397.41
	FillingsUpdate:  mu: -0.484390063  nElectrons: 55.000000  magneticMoment: [ Abs: 0.38837  Tot: +0.38727 ]
LCAOMinimize: Iter:   5  F: -90.5466380443325960  |grad|_K:  1.102e-02  alpha:  1.417e-01  linmin: -1.192e-02  cgtest:  1.953e-01  t[s]:    459.96
LCAOMinimize: 	Step increased F by 3.530057e-02, reducing alpha to 4.043947e-03.
	FillingsUpdate:  mu: -0.488631153  nElectrons: 55.000000  magneticMoment: [ Abs: 0.52446  Tot: +0.52354 ]
LCAOMinimize: Iter:   6  F: -90.5501399415605164  |grad|_K:  8.345e-03  alpha:  4.044e-03  linmin: -9.266e-03  cgtest:  8.839e-01  t[s]:    567.43
LCAOMinimize: Encountered beta<0, resetting CG.
LCAOMinimize: 	Predicted alpha/alphaT>3.000000, increasing alphaT to 1.213184e-02.
LCAOMinimize: 	Predicted alpha/alphaT>3.000000, increasing alphaT to 3.639552e-02.
	FillingsUpdate:  mu: -0.491207944  nElectrons: 55.000000  magneticMoment: [ Abs: 0.99158  Tot: +0.99004 ]
LCAOMinimize: Iter:   7  F: -90.5619526403678918  |grad|_K:  6.603e-03  alpha:  6.615e-02  linmin: -1.719e-02  cgtest:  1.008e+00  t[s]:    679.94
LCAOMinimize: Encountered beta<0, resetting CG.
	FillingsUpdate:  mu: -0.492138384  nElectrons: 55.000000  magneticMoment: [ Abs: 1.00268  Tot: +0.99946 ]
LCAOMinimize: Iter:   8  F: -90.5657597131399115  |grad|_K:  4.568e-03  alpha:  3.889e-02  linmin:  4.132e-03  cgtest:  9.815e-03  t[s]:    741.59
LCAOMinimize: 	Predicted alpha/alphaT>3.000000, increasing alphaT to 1.166652e-01.
	FillingsUpdate:  mu: -0.484136158  nElectrons: 55.000000  magneticMoment: [ Abs: 1.01348  Tot: +1.00000 ]
LCAOMinimize: Iter:   9  F: -90.5719319852569100  |grad|_K:  2.240e-03  alpha:  1.287e-01  linmin:  6.365e-03  cgtest: -3.280e-02  t[s]:    818.62
	FillingsUpdate:  mu: -0.477900161  nElectrons: 55.000000  magneticMoment: [ Abs: 1.02625  Tot: +1.00000 ]
LCAOMinimize: Iter:  10  F: -90.5736427107519404  |grad|_K:  1.776e-03  alpha:  1.503e-01  linmin: -1.220e-04  cgtest:  1.720e-01  t[s]:    878.93
	FillingsUpdate:  mu: -0.477085009  nElectrons: 55.000000  magneticMoment: [ Abs: 1.02922  Tot: +1.00000 ]
LCAOMinimize: Iter:  11  F: -90.5738970217633295  |grad|_K:  4.807e-04  alpha:  3.142e-02  linmin: -2.172e-02  cgtest:  8.233e-02  t[s]:    938.72
LCAOMinimize: 	Predicted alpha/alphaT>3.000000, increasing alphaT to 9.427250e-02.
	FillingsUpdate:  mu: -0.478253119  nElectrons: 55.000000  magneticMoment: [ Abs: 1.04199  Tot: +1.00000 ]
LCAOMinimize: Iter:  12  F: -90.5740195088587825  |grad|_K:  4.014e-04  alpha:  2.078e-01  linmin: -4.714e-03  cgtest:  4.386e-03  t[s]:   1021.15
	FillingsUpdate:  mu: -0.477568364  nElectrons: 55.000000  magneticMoment: [ Abs: 1.05802  Tot: +1.00000 ]
LCAOMinimize: Iter:  13  F: -90.5740881651506413  |grad|_K:  7.081e-04  alpha:  1.682e-01  linmin:  1.082e-04  cgtest: -1.043e-02  t[s]:   1084.78
	FillingsUpdate:  mu: -0.478700729  nElectrons: 55.000000  magneticMoment: [ Abs: 1.08522  Tot: +1.00000 ]
LCAOMinimize: Iter:  14  F: -90.5741677323741357  |grad|_K:  1.488e-04  alpha:  7.411e-02  linmin:  1.106e-02  cgtest:  2.580e-01  t[s]:   1143.16
LCAOMinimize: Encountered beta<0, resetting CG.
	FillingsUpdate:  mu: -0.478764372  nElectrons: 55.000000  magneticMoment: [ Abs: 1.08927  Tot: +1.00000 ]
LCAOMinimize: Iter:  15  F: -90.5741780822711462  |grad|_K:  2.757e-04  alpha:  1.930e-01  linmin: -4.384e-04  cgtest:  3.076e-03  t[s]:   1201.37
	FillingsUpdate:  mu: -0.478073494  nElectrons: 55.000000  magneticMoment: [ Abs: 1.09550  Tot: +1.00000 ]
LCAOMinimize: Iter:  16  F: -90.5741908801453661  |grad|_K:  9.469e-05  alpha:  6.953e-02  linmin:  7.513e-04  cgtest: -7.480e-02  t[s]:   1260.79
	FillingsUpdate:  mu: -0.477963003  nElectrons: 55.000000  magneticMoment: [ Abs: 1.10037  Tot: +1.00000 ]
LCAOMinimize: Iter:  17  F: -90.5741947205988112  |grad|_K:  5.416e-05  alpha:  1.792e-01  linmin: -1.659e-04  cgtest: -1.780e-03  t[s]:   1321.76
	FillingsUpdate:  mu: -0.477921967  nElectrons: 55.000000  magneticMoment: [ Abs: 1.10249  Tot: +1.00000 ]
LCAOMinimize: Iter:  18  F: -90.5741954833971192  |grad|_K:  8.043e-05  alpha:  1.084e-01  linmin:  1.128e-05  cgtest: -4.505e-03  t[s]:   1383.80
	FillingsUpdate:  mu: -0.478324107  nElectrons: 55.000000  magneticMoment: [ Abs: 1.11042  Tot: +1.00000 ]
LCAOMinimize: Iter:  19  F: -90.5741978064504849  |grad|_K:  2.751e-05  alpha:  1.493e-01  linmin: -1.365e-03  cgtest:  6.835e-02  t[s]:   1443.01
	FillingsUpdate:  mu: -0.478255733  nElectrons: 55.000000  magneticMoment: [ Abs: 1.11260  Tot: +1.00000 ]
LCAOMinimize: Iter:  20  F: -90.5741983011902363  |grad|_K:  2.971e-05  alpha:  2.708e-01  linmin: -3.163e-05  cgtest: -6.324e-03  t[s]:   1498.96
	FillingsUpdate:  mu: -0.478263309  nElectrons: 55.000000  magneticMoment: [ Abs: 1.11322  Tot: +1.00000 ]
LCAOMinimize: Iter:  21  F: -90.5741984207299851  |grad|_K:  2.339e-05  alpha:  5.648e-02  linmin:  9.249e-05  cgtest: -1.686e-03  t[s]:   1556.52
LCAOMinimize: Converged (|Delta F|<1.000000e-06 for 2 iters).


---- Citations for features of the code used in this run ----

   Software package:
      R. Sundararaman, K. Letchworth-Weaver, K.A. Schwarz, D. Gunceler, Y. Ozhabes and T.A. Arias, 'JDFTx: software for joint density-functional theory', SoftwareX 6, 278 (2017)

   LibXC library of exchange-correlation functions:
      M. A. L. Marques, M. J. T. Oliveira and T. Burnus, Comput. Phys. Commun. 183, 2272 (2012)

   Boese-Martin for Kinetics exchange-correlation functional:
      A. D. Boese and J. M. L. Martin, J. Chem. Phys. 121, 3405 (2004)

   Truncated Coulomb potentials:
      R. Sundararaman and T.A. Arias, Phys. Rev. B 87, 165122 (2013)

   gga-PBE exchange-correlation functional:
      J.P. Perdew, K. Burke and M. Ernzerhof, Phys. Rev. Lett. 77, 3865 (1996)

   Total energy minimization with Auxiliary Hamiltonian:
      C. Freysoldt, S. Boeck, and J. Neugebauer, Phys. Rev. B 79, 241103(R) (2009)

This list may not be complete. Please suggest additional citations or
report any other bugs at https://github.com/shankar1729/jdftx/issues

Initialization completed successfully at t[s]:   1571.72


-------- Electronic minimization -----------
	FillingsUpdate:  mu: -0.459185305  nElectrons: 55.000000  magneticMoment: [ Abs: 1.11322  Tot: +1.00000 ]
ElecMinimize: Iter:   0  F: -88.262931073288428  |grad|_K:  2.272e-04  alpha:  1.000e+00
	FillingsUpdate:  mu: -0.484192901  nElectrons: 55.000000  magneticMoment: [ Abs: 1.17122  Tot: +1.00000 ]
	SubspaceRotationAdjust: set factor to 1.03
ElecMinimize: Iter:   1  F: -89.260354459393056  |grad|_K:  1.315e-04  alpha:  7.358e-01  linmin:  2.771e-06  t[s]:  13046.79
	FillingsUpdate:  mu: -0.422876126  nElectrons: 55.000000  magneticMoment: [ Abs: 1.18506  Tot: +1.00000 ]
	SubspaceRotationAdjust: set factor to 1.39
ElecMinimize: Iter:   2  F: -89.493218805069603  |grad|_K:  7.066e-05  alpha:  5.168e-01  linmin: -7.727e-07  t[s]:  18696.61
	FillingsUpdate:  mu: -0.413309423  nElectrons: 55.000000  magneticMoment: [ Abs: 1.19998  Tot: +1.00000 ]
	SubspaceRotationAdjust: set factor to 1.44
ElecMinimize: Iter:   3  F: -89.574787880149103  |grad|_K:  3.281e-05  alpha:  6.204e-01  linmin: -8.275e-05  t[s]:  24329.78
	FillingsUpdate:  mu: -0.421660327  nElectrons: 55.000000  magneticMoment: [ Abs: 1.20354  Tot: +1.00000 ]
	SubspaceRotationAdjust: set factor to 1.42
ElecMinimize: Iter:   4  F: -89.589841224407905  |grad|_K:  1.716e-05  alpha:  5.230e-01  linmin:  1.624e-05  t[s]:  30006.16
	FillingsUpdate:  mu: -0.423234180  nElectrons: 55.000000  magneticMoment: [ Abs: 1.20862  Tot: +1.00000 ]
	SubspaceRotationAdjust: set factor to 1.41
ElecMinimize: Iter:   5  F: -89.594153890021957  |grad|_K:  1.037e-05  alpha:  5.660e-01  linmin:  1.061e-05  t[s]:  35655.10
	FillingsUpdate:  mu: -0.416906871  nElectrons: 55.000000  magneticMoment: [ Abs: 1.21214  Tot: +1.00000 ]
	SubspaceRotationAdjust: set factor to 1.43
ElecMinimize: Iter:   6  F: -89.595769543093269  |grad|_K:  6.502e-06  alpha:  5.770e-01  linmin:  4.152e-06  t[s]:  41323.73
	FillingsUpdate:  mu: -0.420397937  nElectrons: 55.000000  magneticMoment: [ Abs: 1.21208  Tot: +1.00000 ]
	SubspaceRotationAdjust: set factor to 1.44
ElecMinimize: Iter:   7  F: -89.596451260723171  |grad|_K:  4.331e-06  alpha:  6.144e-01  linmin: -9.333e-06  t[s]:  46976.97
	FillingsUpdate:  mu: -0.418840009  nElectrons: 55.000000  magneticMoment: [ Abs: 1.21049  Tot: +1.00000 ]
	SubspaceRotationAdjust: set factor to 1.55
ElecMinimize: Iter:   8  F: -89.596714085780775  |grad|_K:  2.895e-06  alpha:  5.295e-01  linmin:  1.405e-06  t[s]:  52659.35
	FillingsUpdate:  mu: -0.418142844  nElectrons: 55.000000  magneticMoment: [ Abs: 1.20723  Tot: +1.00000 ]
	SubspaceRotationAdjust: set factor to 1.82
ElecMinimize: Iter:   9  F: -89.596899764649095  |grad|_K:  2.324e-06  alpha:  8.409e-01  linmin: -2.167e-05  t[s]:  58322.47
	FillingsUpdate:  mu: -0.418631019  nElectrons: 55.000000  magneticMoment: [ Abs: 1.20230  Tot: +1.00000 ]
	SubspaceRotationAdjust: set factor to 2.06
ElecMinimize: Iter:  10  F: -89.597021146448782  |grad|_K:  2.172e-06  alpha:  8.469e-01  linmin:  2.227e-06  t[s]:  63915.33
	FillingsUpdate:  mu: -0.417927287  nElectrons: 55.000000  magneticMoment: [ Abs: 1.19870  Tot: +1.00000 ]
	SubspaceRotationAdjust: set factor to 2.17
ElecMinimize: Iter:  11  F: -89.597099680292587  |grad|_K:  1.526e-06  alpha:  6.331e-01  linmin:  2.595e-06  t[s]:  69443.46
	FillingsUpdate:  mu: -0.418208495  nElectrons: 55.000000  magneticMoment: [ Abs: 1.19652  Tot: +1.00000 ]
	SubspaceRotationAdjust: set factor to 2.1
ElecMinimize: Iter:  12  F: -89.597142550445682  |grad|_K:  1.304e-06  alpha:  7.005e-01  linmin: -1.278e-05  t[s]:  75000.46
	FillingsUpdate:  mu: -0.417825202  nElectrons: 55.000000  magneticMoment: [ Abs: 1.19498  Tot: +1.00000 ]
	SubspaceRotationAdjust: set factor to 1.74
ElecMinimize: Iter:  13  F: -89.597162540679648  |grad|_K:  9.491e-07  alpha:  4.385e-01  linmin: -1.284e-06  t[s]:  80517.14
	FillingsUpdate:  mu: -0.418392791  nElectrons: 55.000000  magneticMoment: [ Abs: 1.19380  Tot: +1.00000 ]
	SubspaceRotationAdjust: set factor to 1.63
ElecMinimize: Iter:  14  F: -89.597174796619100  |grad|_K:  6.608e-07  alpha:  5.172e-01  linmin: -7.105e-06  t[s]:  85925.29
	FillingsUpdate:  mu: -0.418153781  nElectrons: 55.000000  magneticMoment: [ Abs: 1.19327  Tot: +1.00000 ]
	SubspaceRotationAdjust: set factor to 2.1
ElecMinimize: Iter:  15  F: -89.597181738072578  |grad|_K:  4.801e-07  alpha:  6.026e-01  linmin: -6.549e-08  t[s]:  91358.48
	FillingsUpdate:  mu: -0.418060284  nElectrons: 55.000000  magneticMoment: [ Abs: 1.19304  Tot: +1.00000 ]
	SubspaceRotationAdjust: set factor to 2.23
ElecMinimize: Iter:  16  F: -89.597186185974891  |grad|_K:  3.963e-07  alpha:  7.349e-01  linmin: -1.901e-06  t[s]:  96783.36
	FillingsUpdate:  mu: -0.418355887  nElectrons: 55.000000  magneticMoment: [ Abs: 1.19302  Tot: +1.00000 ]
	SubspaceRotationAdjust: set factor to 2.01
ElecMinimize: Iter:  17  F: -89.597188382752151  |grad|_K:  3.724e-07  alpha:  5.321e-01  linmin: -2.050e-07  t[s]: 102252.84
	FillingsUpdate:  mu: -0.418174204  nElectrons: 55.000000  magneticMoment: [ Abs: 1.19313  Tot: +1.00000 ]
	SubspaceRotationAdjust: set factor to 1.8
ElecMinimize: Iter:  18  F: -89.597190283518373  |grad|_K:  2.769e-07  alpha:  5.220e-01  linmin: -7.657e-07  t[s]: 107525.66
	FillingsUpdate:  mu: -0.418228113  nElectrons: 55.000000  magneticMoment: [ Abs: 1.19330  Tot: +1.00000 ]
	SubspaceRotationAdjust: set factor to 1.99
ElecMinimize: Iter:  19  F: -89.597191612390588  |grad|_K:  2.160e-07  alpha:  6.594e-01  linmin:  9.873e-08  t[s]: 112798.48
	FillingsUpdate:  mu: -0.418290465  nElectrons: 55.000000  magneticMoment: [ Abs: 1.19343  Tot: +1.00000 ]
	SubspaceRotationAdjust: set factor to 2.14
ElecMinimize: Iter:  20  F: -89.597192399693455  |grad|_K:  1.548e-07  alpha:  6.427e-01  linmin:  4.352e-07  t[s]: 118078.23
	FillingsUpdate:  mu: -0.418194562  nElectrons: 55.000000  magneticMoment: [ Abs: 1.19353  Tot: +1.00000 ]
	SubspaceRotationAdjust: set factor to 1.75
ElecMinimize: Iter:  21  F: -89.597192726687695  |grad|_K:  1.249e-07  alpha:  5.202e-01  linmin:  2.592e-07  t[s]: 123379.07
	FillingsUpdate:  mu: -0.418256117  nElectrons: 55.000000  magneticMoment: [ Abs: 1.19360  Tot: +1.00000 ]
	SubspaceRotationAdjust: set factor to 1.48
ElecMinimize: Iter:  22  F: -89.597192901197857  |grad|_K:  7.124e-08  alpha:  4.265e-01  linmin:  3.772e-07  t[s]: 128467.74
	FillingsUpdate:  mu: -0.418248123  nElectrons: 55.000000  magneticMoment: [ Abs: 1.19363  Tot: +1.00000 ]
	SubspaceRotationAdjust: set factor to 1.64
ElecMinimize: Iter:  23  F: -89.597192987381447  |grad|_K:  4.643e-08  alpha:  6.473e-01  linmin:  2.420e-07  t[s]: 133265.86
	FillingsUpdate:  mu: -0.418230119  nElectrons: 55.000000  magneticMoment: [ Abs: 1.19362  Tot: +1.00000 ]
	SubspaceRotationAdjust: set factor to 1.67
ElecMinimize: Iter:  24  F: -89.597193019481182  |grad|_K:  3.060e-08  alpha:  5.672e-01  linmin:  1.184e-06  t[s]: 137778.07
	FillingsUpdate:  mu: -0.418243336  nElectrons: 55.000000  magneticMoment: [ Abs: 1.19360  Tot: +1.00000 ]
	SubspaceRotationAdjust: set factor to 1.5
ElecMinimize: Iter:  25  F: -89.597193033344098  |grad|_K:  2.101e-08  alpha:  5.651e-01  linmin:  1.443e-06  t[s]: 142584.21
	FillingsUpdate:  mu: -0.418234606  nElectrons: 55.000000  magneticMoment: [ Abs: 1.19359  Tot: +1.00000 ]
	SubspaceRotationAdjust: set factor to 1.46
ElecMinimize: Iter:  26  F: -89.597193039535995  |grad|_K:  1.334e-08  alpha:  5.371e-01  linmin:  1.774e-06  t[s]: 147284.16
	FillingsUpdate:  mu: -0.418234002  nElectrons: 55.000000  magneticMoment: [ Abs: 1.19358  Tot: +1.00000 ]
	SubspaceRotationAdjust: set factor to 1.75
ElecMinimize: Iter:  27  F: -89.597193042483440  |grad|_K:  9.018e-09  alpha:  6.415e-01  linmin:  9.096e-07  t[s]: 151754.93
ElecMinimize: Converged (|Delta F|<1.000000e-08 for 2 iters).
Setting wave functions to eigenvectors of Hamiltonian

# Ionic positions in cartesian coordinates:
ion Si  17.051088600000000   4.511838894015373  14.415996395972480 1
ion Si  11.582437663621892   2.986955595433721  17.366835281426155 1
ion Si  22.000623950734131   4.159306476816313  17.871948968293822 1
ion Si  14.881638761889223   0.049058061833375  10.960043823651137 1
ion Si  20.008304517733837   8.315883947496340  10.743678810780890 1
ion O  18.088204517733836   7.282083947496342  13.118678810780890 1
ion O  13.582537663621892   4.507255595433721  15.345735281426158 1
ion O  19.066923950734129   3.513406476816314  16.733848968293820 1
ion O  16.907838761889220   2.266858061833375  12.098143823651137 1
ion H  13.291027872942955  -0.917794195482995  13.098355941300902 1
ion H  16.387786251535697  -2.055276916669535   9.802235964945398 1
ion H  21.568190867543628   6.182524245433986   9.717639845978137 1
ion H  10.868422731517944   4.750144297368529  19.468875547001971 1
ion H  21.881307240902000   6.179337495006001  19.857512668683807 1
ion H  13.191890964904971   1.162455728250878   8.974515425716994 1
ion H  18.412569078117112   9.369303215888426   8.650556441751430 1
ion H  12.832872923987528   0.698771148347812  18.479421725595088 1
ion H  23.069969914842218   1.802809329534472  19.029811397038401 1
ion H   9.283166141230087   2.162225530690644  15.927948285645403 1
ion H  23.633324009359061   5.053339230120113  15.733673739380063 1
ion H  21.746359703100786  10.304312980780734  11.774474208622163 1

# Forces in Cartesian coordinates:
force Si   0.043864411766592   0.000375899461501  -0.018904199199440 1
force Si  -0.003280881002742  -0.028392636206107   0.000327695594478 1
force Si   0.010633433256892   0.003667458646782   0.003068057586256 1
force Si  -0.004316251509883  -0.008154152182545  -0.007638646819440 1
force Si   0.003936116030167   0.002714943209219  -0.007791562182337 1
force O  -0.028587536740496  -0.047223322760327   0.027105100477591 1
force O   0.051100635286132   0.011346836004458  -0.005863929150446 1
force O  -0.053239021106069   0.024714082530096  -0.041790589161376 1
force O  -0.016343677026442   0.026046974170837   0.037217394860731 1
force H   0.004873515303396   0.002712515323704  -0.002691753209090 1
force H  -0.000369095796663   0.007365657596628   0.005567711231497 1
force H  -0.005572198865048   0.002391322265453   0.005306474982038 1
force H   0.003788914910562   0.007578091042950  -0.004085362075594 1
force H  -0.004100104333048  -0.004685367328779  -0.005660314409557 1
force H   0.005803254599227   0.000824469747603   0.006222405188011 1
force H   0.001715648669099  -0.002966779081643   0.008009080365350 1
force H   0.001520978859225   0.009032019876961  -0.002516250645449 1
force H  -0.007323857803156   0.004711141168977  -0.005527751063366 1
force H   0.005655594734005   0.008991548884382  -0.000541595428518 1
force H  -0.005818054641930  -0.002593004777073   0.003736347141499 1
force H  -0.007620154956204  -0.005964400070988   0.000945019668673 1

# Energy components:
   Eewald =      240.2538670774046636
       EH =      303.8879781343254081
     Eloc =     -658.5522773636239435
      Enl =       -7.6556360818531388
      Exc =      -16.7346580790686659
 Exc_core =        2.0259440203039563
      EXX =       -9.2763715134205462
       KE =       56.4539607634488902
-------------------------------------
     Etot =      -89.5971930424834397
       TS =        0.0000000000000000
-------------------------------------
        F =      -89.5971930424834397

IonicMinimize: Iter:   0  F: -89.597193042483440  |grad|_K:  1.713e-02  t[s]: 151771.34
IonicMinimize: None of the convergence criteria satisfied after 0 iterations.

#--- Lowdin population analysis ---
# oxidation-state Si +1.851 +1.075 +1.086 +1.088 +1.077
# magnetic-moments Si -0.032 -0.051 -0.002 -0.006 -0.001
# oxidation-state O -0.817 -0.519 -0.811 -0.740
# magnetic-moments O +0.007 +0.594 +0.026 +0.185
# oxidation-state H -0.140 -0.063 -0.122 +0.018 -0.103 -0.091 -0.100 -0.071 -0.086 -0.039 -0.122 -0.093
# magnetic-moments H +0.004 +0.021 -0.000 +0.144 +0.008 +0.012 +0.001 +0.022 +0.003 +0.046 +0.001 +0.003


Dumping 'cluster152.n_up' ... done
Dumping 'cluster152.n_dn' ... done
Dumping 'cluster152.eigenvals' ... done
Dumping 'cluster152.eigStats' ... 
	eMin: -1.352506 at state 0 ( [ +0.000000 +0.000000 +0.000000 ] spin 1 )
	HOMO: -0.479923 at state 1 ( [ +0.000000 +0.000000 +0.000000 ] spin -1 )
	mu  : -0.418234
	LUMO: -0.414908 at state 1 ( [ +0.000000 +0.000000 +0.000000 ] spin -1 )
	eMax: -0.014330 at state 1 ( [ +0.000000 +0.000000 +0.000000 ] spin -1 )
	HOMO-LUMO gap: +0.065016
	Optical gap  : +0.065016 at state 1 ( [ +0.000000 +0.000000 +0.000000 ] spin -1 )
Dumping 'cluster152.Excitations' ... done
Dumping 'cluster152.momenta' ... done
End date and time: Thu Jun 10 19:09:04 2021  (Duration: 1-18:23:25.40)
Done!
